/*--------------------------------*- C++ -*----------------------------------*\
| =========                 |                                                 |
| \\      /  F ield         | OpenFOAM: The Open Source CFD Toolbox           |
|  \\    /   O peration     | Version:  v1912                                 |
|   \\  /    A nd           | Website:  www.openfoam.com                      |
|    \\/     M anipulation  |                                                 |
\*---------------------------------------------------------------------------*/
FoamFile
{
    version     2.0;
    format      ascii;
    class       volScalarField;
    object      T;
}
// * * * * * * * * * * * * * * * * * * * * * * * * * * * * * * * * * * * * * //

dimensions      [0 0 0 1 0 0 0];

internalField   uniform 300;

boundaryField
{
    SideA
    {
        type            cyclic;
    }


    SideB
    {
        type            cyclic;
    }
	
    BottomWall
    {
		type           fixedValue;
        value          uniform 300;

    }

    atmosphere
    {
        type            inletOutlet;
        inletValue      uniform 300;
        value           uniform 300;
    }

    FrontNBack
    {
        type            empty;
    }
}

// ************************************************************************* //
